900
Time=10000000.00087173 pbc="T T T" Lattice="20.76393263 0.00000000 0.00000000 0.00000000 20.76393263 0.00000000 0.00000000 0.00000000 20.76393263" energy=-121.14085913 virial="-9.66691658 11.03525280 -3.64059558 11.03525280 -3.14021156 -0.62522642 -3.64059558 -0.62522642 -43.07961798" stress="0.00161387 0.00123269 -0.00040667 0.00123269 0.00196612 -0.00006984 -0.00040667 -0.00006984 -0.00244279" Properties=species:S:1:pos:R:3
O 7.47424387 3.63586843 4.84051724
H 8.35278583 4.05035797 5.15515407
H 7.58222876 3.62563979 3.88626246
O 6.50438703 20.47894782 6.95015739
H 6.53241940 19.69032598 7.46361045
H 5.62079270 0.08018797 7.10180420
O 8.07847865 0.67607503 16.76467710
H 7.71440484 1.48965086 17.14713305
H 8.40896364 0.95760175 15.89237690
O 7.11878209 13.64047819 6.55836417
H 7.55348652 13.94760790 5.75775276
H 6.39095794 14.31253355 6.66283759
O 7.08124354 10.46016399 20.19093582
H 6.27857720 10.20174912 20.67090736
H 7.38362783 11.35566829 20.50961135
O 7.44523595 7.57934949 4.14863929
H 7.16731122 7.51329012 5.09576329
H 6.75880251 7.08123278 3.72777728
O 5.88252062 6.71438435 2.09166716
H 5.66926669 7.54859927 1.60149450
H 5.05393823 6.24550657 2.29029113
O 2.39842983 6.78480311 10.93372827
H 3.21030333 7.11423115 11.22806298
H 1.76565506 7.44208094 11.21117120
O 0.76533667 17.04683161 6.53523364
H 1.39899065 16.44039307 6.10780702
H 0.77638115 17.69095104 5.77263660
O 20.52682045 7.31914227 10.82631525
H 19.84693486 7.78163092 11.30666670
H 20.21369580 6.43413561 10.66579669
O 12.06001267 1.67287800 7.35237262
H 12.13164695 1.52526287 8.30187661
H 11.34453210 2.31703142 7.25119574
O 11.64927765 7.74799873 0.90950914
H 11.34105083 6.85237622 0.78105721
H 12.63904045 7.65325394 0.77554002
O 5.19163671 17.80532465 16.81936952
H 5.65945180 17.36076661 17.54728386
H 5.50799546 18.75432197 16.73351924
O 4.97078419 9.44963576 3.35438963
H 5.70745670 8.89643788 3.57232476
H 5.14491771 10.24763599 3.88989523
O 7.30982406 15.34269253 14.24236187
H 7.68359771 15.99303066 14.86385175
H 6.34940049 15.41226497 14.21946809
O 16.04510864 11.60356309 6.27081821
H 16.49747220 12.36920584 5.73580406
H 15.07859311 11.48596279 6.06351828
O 5.19358777 4.84363560 5.56768081
H 6.09593813 4.59187965 5.06760844
H 4.57373706 5.33251525 5.00109205
O 6.60220886 11.75510830 8.53580808
H 6.52704496 10.81322935 8.30258165
H 6.95330215 12.20013145 7.71450459
O 19.76871618 12.48256666 0.07765174
H 19.55031967 13.46591863 20.70296259
H 20.49765395 12.57170592 0.73596813
O 19.56333159 0.13648440 1.40444612
H 19.23482810 20.01116521 1.63879754
H 20.30435634 20.75419584 0.85185792
O 7.27033686 19.26172244 4.98034792
H 6.93357946 19.88060501 5.60609029
H 7.57340589 19.79954933 4.26358274
O 0.30125693 11.72068946 18.38486349
H 1.01861593 12.20651700 18.03870861
H 0.03758969 12.12815722 19.24741592
O 19.33744471 8.66069541 13.45961471
H 20.27575921 8.43667762 13.29643041
H 19.20669345 9.55475742 12.98540912
O 17.37203829 5.32764261 12.17812478
H 17.18430602 4.54112780 11.76914074
H 17.04644746 6.04734922 11.59823014
O 0.36873516 5.33307247 16.06910311
H 1.13947912 5.47995532 15.48103026
H 20.42091462 5.18959928 15.37091543
O 15.88856314 16.46686782 16.34298442
H 16.65667178 15.98057703 16.74330627
H 15.15713187 16.33418428 16.92585208
O 5.57685154 12.32518305 16.03271944
H 6.04796917 13.00144173 16.60535942
H 6.08197789 11.56017997 16.16432427
O 7.26660089 14.06104950 17.81442811
H 8.23518381 14.15609740 17.68525819
H 6.95277961 14.94089969 17.96589885
O 19.63353028 4.85407769 13.93910515
H 18.94394365 5.29839878 13.45373445
H 19.91981647 4.13141951 13.24538571
O 4.16084632 7.16683629 7.29441951
H 3.73050943 6.80909961 6.50975435
H 3.63452195 8.01629728 7.50741140
O 15.00256957 7.26597541 5.62130524
H 15.61017232 7.96286683 5.44883758
H 14.09662936 7.51204987 5.54561775
O 10.33805056 10.86045669 0.34437121
H 10.87254707 10.43756790 20.34067055
H 10.96826818 11.50635752 0.75663015
O 11.11115926 5.09131102 0.48072877
H 11.43621692 4.22928694 0.73769697
H 11.49924666 5.22287045 20.32826763
O 19.21094522 15.36531529 1.90532975
H 18.76844869 15.27727036 1.06493760
H 19.29591821 16.29235747 2.06809236
O 14.71243088 14.97652157 4.70761938
H 14.78104559 14.95975214 3.74613849
H 15.60823524 14.68539900 4.99175924
O 14.07892812 5.78140116 10.59122647
H 14.82940777 6.36049517 10.58731296
H 13.41279294 6.38677524 10.26448272
O 2.86534729 12.96053279 3.48465459
H 3.22628769 12.84825439 4.39813636
H 2.44241080 12.12553992 3.35798837
O 17.10071553 8.73559834 5.70004120
H 16.78490737 9.62006996 5.86472217
H 17.41558594 8.41953266 6.57187556
O 7.38722043 20.36667659 19.89791345
H 8.14405061 0.23834012 20.05915442
H 6.86263222 0.08710735 19.31982715
O 4.34632898 4.45244584 2.38642597
H 4.97473072 4.12421264 1.68312182
H 3.91773270 3.75176628 2.87608109
O 16.54674829 18.02619636 6.13584050
H 17.05159945 18.60723828 5.61297037
H 15.69633533 18.04118773 5.69786011
O 20.56110039 19.92588136 13.06539181
H 20.30758962 18.99009929 13.27973404
H 0.37110345 20.24864447 13.86810416
O 9.84353104 13.25472586 10.78618383
H 9.72670053 12.47752113 10.19899411
H 10.74224122 13.62336196 10.74748968
O 18.40703387 2.41487872 15.39190440
H 17.89769872 1.81579748 14.81008217
H 18.69358506 3.28800161 15.04116624
O 16.16578010 19.21016512 16.31464034
H 15.21892988 19.29891475 16.51506451
H 16.25713983 18.25719706 16.14770917
O 8.60565124 17.93482325 20.05409447
H 8.02479828 18.73663960 20.05204844
H 8.73865372 17.78324298 0.24359418
O 0.45888236 18.75289267 4.54563002
H 1.09599685 19.45012502 4.46140045
H 0.36584484 18.44379770 3.62034703
O 10.12016577 3.81444873 10.56086331
H 10.63603365 4.21423409 11.31012529
H 9.48136363 3.21755731 10.92943177
O 13.66891610 12.30235121 19.17867374
H 14.54493128 12.68332179 19.15570712
H 13.28326732 12.64683774 18.38214372
O 9.26593635 1.29432419 6.88476412
H 9.50428023 1.07478176 5.98558327
H 8.90214691 0.47130864 7.20804132
O 9.10513983 13.20662094 13.81430277
H 9.46826111 13.11927355 12.90532847
H 8.39416854 13.82875470 13.82613525
O 1.73129744 20.38943594 11.37156484
H 1.10008672 19.81928424 11.83645089
H 2.41755856 19.73204037 11.01513438
O 14.87824680 1.70880644 20.41170642
H 15.81306065 1.67895564 20.43578855
H 14.58689073 1.19856575 0.48912841
O 15.64164134 6.33371770 18.69934213
H 15.24763174 5.68917477 19.35154852
H 16.47466175 5.89154412 18.52306658
O 19.02701933 15.88057071 6.01829827
H 19.94095436 16.20484107 6.00999159
H 18.42814117 16.64336778 5.89354807
O 14.99942422 16.92160992 13.70084586
H 15.78977142 17.46778596 13.59975556
H 15.16797240 16.47277171 14.54260311
O 13.25741645 10.99630177 3.18525721
H 12.87392546 11.61930845 3.77425152
H 12.62729097 10.25269069 3.03069986
O 20.65583565 17.47305616 20.30894124
H 0.29922438 16.82838087 19.72040368
H 20.01720408 16.99178858 0.05076133
O 9.79367885 20.00524195 9.17432066
H 10.72017542 20.24937134 9.54841621
H 9.82841169 19.07547633 8.85770604
O 17.83778579 4.63724817 1.03281911
H 17.88096323 4.97948435 0.11830570
H 17.71141752 5.50431899 1.50020526
O 4.62193302 3.95564411 17.34150783
H 3.95955939 4.30137857 16.74845568
H 5.42471997 4.46392640 17.24985314
O 11.29849217 5.57876946 5.88352700
H 11.29436456 5.09482662 6.75647556
H 11.62370713 6.47111764 6.03522058
O 12.00639606 14.78560253 10.60636626
H 12.68596943 14.82236601 9.95680723
H 12.31086781 15.16071628 11.41914897
O 4.51906664 3.29571181 10.73666929
H 4.76280481 3.86896548 11.43167067
H 4.78790010 3.73169109 9.88349414
O 2.02047487 13.59123526 16.81562910
H 1.50264327 13.64432582 15.94777139
H 1.72556840 14.39057777 17.22828408
O 4.49004308 18.28327740 4.82025130
H 3.89999026 19.01375607 4.60823047
H 5.39239374 18.63854646 4.90207034
O 0.42293330 1.65556363 3.24203785
H 20.64524454 1.51888250 3.98918261
H 0.34169444 0.89505694 2.65972845
O 11.59914920 1.02934592 10.27423946
H 12.19742226 1.35437200 10.93797600
H 10.81901542 1.53879228 10.38529328
O 0.67403036 12.17059937 11.57328704
H 0.99315162 11.92892561 12.48423293
H 1.26815497 12.88579489 11.25987211
O 7.22285769 2.60760373 7.66660348
H 8.12797023 2.59101844 7.48222457
H 6.80342833 2.09299531 7.00064819
O 5.30218140 13.22841079 13.54005214
H 5.60571117 13.05574624 14.44999339
H 5.09934234 12.32153334 13.33032524
O 19.48758479 14.96300270 19.88758347
H 18.83339405 14.94979036 19.18148436
H 20.29101438 14.86823350 19.33189553
O 14.02194080 15.62343023 17.84375792
H 13.79941672 14.86633062 17.29604503
H 13.43018937 15.49192066 18.60951740
O 16.21193031 10.01155687 2.51833113
H 15.33829134 9.73100349 2.73698559
H 16.15411284 11.01990953 2.63135442
O 4.69172315 16.85989633 14.33014120
H 5.30512527 16.99911070 13.60685050
H 5.11904547 17.15965496 15.15244521
O 1.20598587 4.65293305 4.47730875
H 0.32197599 4.25589908 4.50344812
H 1.21616582 5.45963848 5.08351120
O 15.66446153 5.60500356 7.71898511
H 15.04253582 4.92410302 8.04293805
H 15.12887127 6.03295094 7.03359444
O 12.78751276 12.55005058 1.01469059
H 13.14756321 11.80289376 1.56530025
H 13.13530006 12.43982160 0.08084101
O 18.18621878 15.14854498 17.30922939
H 18.08914071 14.43612370 16.68206379
H 18.90886086 15.69441456 16.95199189
O 11.54997684 6.69036128 15.18896248
H 12.34786006 6.91366294 15.64859774
H 11.59074177 7.07381817 14.29167048
O 19.44123289 13.80824596 12.93828993
H 19.49857916 14.43167594 12.19680240
H 18.70708960 14.25470238 13.41870548
O 9.67152732 10.38392734 9.22813825
H 9.22686485 9.97782210 10.01096433
H 10.64328095 10.39687578 9.44684675
O 9.49658912 6.99788773 10.09926713
H 9.88676927 6.23278770 10.64525307
H 9.05040297 7.58887046 10.70894212
O 5.43621742 1.33721484 18.17672691
H 4.73996783 1.04554239 18.77499374
H 5.14818256 2.10531202 17.71725566
O 3.13678617 10.37729736 15.06524654
H 2.40429945 9.92275991 15.55411901
H 2.72583039 11.20156474 14.64220567
O 18.80126134 10.27021721 19.85147590
H 18.00107539 9.82273396 20.16783823
H 18.99321658 11.05262908 20.40227856
O 2.92446466 3.16636534 6.22381024
H 2.30645734 3.40485202 5.48781157
H 3.75579475 3.67808966 5.95892766
O 12.03819985 3.55431236 18.27825186
H 12.75918157 2.93877405 18.15178300
H 11.35986938 3.08518428 18.76412892
O 14.05496275 5.09743352 13.28047212
H 14.52553065 5.81594130 13.69053867
H 14.00471565 5.38155811 12.36974769
O 14.83422506 9.08073155 18.40782472
H 15.46198710 8.35494164 18.66974053
H 15.37201320 9.69821201 17.98359998
O 0.27527789 0.42983624 9.19865333
H 0.75024546 0.39372559 10.03681347
H 20.75960550 20.27718374 9.09919546
O 19.69724325 9.54978862 8.08459258
H 20.63334605 9.47057557 8.47666720
H 19.80344554 9.39463888 7.10991178
O 6.35213430 6.37575337 18.94824632
H 6.73807072 6.42195974 19.80911631
H 6.37030520 7.27654891 18.64121184
O 0.92895410 7.67176691 1.45200021
H 1.24109819 6.76448814 1.12268944
H 0.78447194 8.07959137 0.58466038
O 9.33808231 1.82983694 14.42590014
H 9.92136006 2.49092876 14.86200431
H 9.86644792 1.17415005 13.93065630
O 11.11079314 9.10221680 3.26623758
H 10.16560884 9.30750258 3.12945832
H 11.30800797 8.50794114 2.45033846
O 10.93653199 20.70958275 2.07562200
H 10.52932921 0.46633136 2.79119978
H 10.96690368 19.79684417 2.40824754
O 7.69849927 4.45754577 17.41957925
H 7.67986084 5.34771547 17.79929428
H 8.48365509 4.33747301 16.88090223
O 5.07408104 15.31328433 7.24189196
H 4.84930985 14.78467559 8.05196937
H 4.26078737 15.10089950 6.76601008
O 16.81353064 15.15725402 20.75717598
H 16.12108737 14.81531449 0.58208242
H 16.61818123 14.70713930 19.90750823
O 19.06766759 10.93090248 11.97064937
H 19.92570443 11.32349396 11.72192890
H 18.50650172 11.67279302 12.26110622
O 20.46074864 7.02997106 17.74760783
H 19.69582213 7.18278023 17.21166977
H 0.09156538 6.27706848 17.37164661
O 19.87921055 0.54451946 5.65325406
H 20.71045956 0.03586311 5.95148845
H 19.63306161 1.13887455 6.37612173
O 9.20633200 13.01302860 3.62345498
H 8.66959009 13.04059329 2.80038559
H 9.35714335 13.89610710 3.89617548
O 0.01530758 0.86871034 15.47250009
H 20.10129137 1.53400200 15.40822632
H 0.69223049 1.29301788 15.96390002
O 6.38097314 16.31285330 3.51757258
H 5.90817500 15.78369757 2.88593577
H 5.61566414 16.68943622 4.04082528
O 10.43339832 17.71925650 11.66348246
H 9.70856031 17.07886667 11.55923085
H 11.03603657 17.68014387 10.94433831
O 18.88191960 11.92903628 8.85287854
H 19.68583390 11.90958717 9.40540748
H 18.95089439 11.20890654 8.27027893
O 2.92220779 15.89321140 3.02951364
H 3.43145632 15.08484597 3.02898882
H 2.23854146 15.78554016 3.70523189
O 0.40603668 8.66549435 19.70926159
H 20.45687207 9.34687619 19.57986612
H 0.25658582 7.97262195 19.04692815
O 2.63906950 5.73035904 14.53823607
H 2.93946646 4.79529699 14.49248216
H 2.17753009 5.98926027 13.71103903
O 2.58333792 17.03467936 8.85168457
H 1.85066034 17.25711597 8.22223274
H 2.54262570 17.72326361 9.54684053
O 1.01540983 9.17006742 16.66288654
H 0.77179852 8.28690584 16.94139083
H 0.94553986 9.68557443 17.47115989
O 1.34912379 9.98101930 9.52432504
H 1.35728877 10.89687744 9.73543946
H 1.96075499 9.89852797 8.73383236
O 9.19848510 14.73476690 8.29162741
H 8.66327502 14.15322679 7.69993480
H 9.27571590 14.18996996 9.16212380
O 13.86542324 15.14264923 8.59371945
H 14.64419939 15.66220243 8.77698994
H 14.31732446 14.29794849 8.35152570
O 7.59150798 19.38492229 14.19433930
H 8.12438738 18.67365782 14.46914849
H 7.75520352 19.53539306 13.27527050
O 18.21475197 4.45963053 7.39964298
H 18.43655200 4.49779317 6.41295941
H 17.28064756 4.80397887 7.37433936
O 1.29971475 20.64624913 0.24816356
H 1.37787228 20.30884919 20.11743378
H 1.36294796 19.85889536 0.79377236
O 9.05917549 17.53339858 8.10549455
H 8.12509359 17.68377590 8.26846758
H 9.11948649 16.53157152 8.29554842
O 8.48967215 9.73084678 2.23586920
H 8.98010298 10.16431912 1.49150596
H 7.87307887 9.13658524 1.89143285
O 5.55343149 20.19839360 15.84975961
H 6.21271274 19.87991294 15.21236127
H 6.11297095 0.01492032 16.39421030
O 11.89467886 12.83861447 4.91130682
H 11.93026835 13.67087005 5.37912920
H 10.98204600 12.77735553 4.54189318
O 8.37574695 3.42843420 1.96712471
H 8.74389423 4.30142089 2.11676784
H 7.50887232 3.52952440 1.48379498
O 20.49409009 3.64650936 1.39913355
H 20.50124523 3.03281587 2.15101354
H 19.59773057 4.07591447 1.35314366
O 13.95950281 18.57652787 0.76810712
H 13.27376810 18.64478737 0.11772035
H 14.74010811 18.28100974 0.24330058
O 19.15037711 10.65026214 3.45608159
H 19.78100777 9.85013273 3.60386695
H 18.29389613 10.32244747 3.24545739
O 17.32926033 19.95109238 18.50657412
H 17.33345148 0.11624920 18.49306312
H 16.85366245 19.79642569 17.67231169
O 4.18875413 18.94503480 1.94308455
H 4.87675321 19.63164160 1.81608396
H 4.60182727 18.49878437 2.70929505
O 8.65733611 14.68206575 1.36822666
H 8.41720423 15.61107827 1.45627589
H 9.59724377 14.72745375 1.22273767
O 5.63955977 4.70618181 8.42772292
H 5.32274639 5.04188070 7.58010372
H 6.20992539 3.92480423 8.16381787
O 6.73238123 13.43636573 20.67024222
H 7.50818101 13.92476911 0.19676283
H 6.81739859 13.35450302 19.67720756
O 1.63552295 5.84150352 8.35326309
H 2.34504297 5.38161944 7.91599381
H 2.04826662 6.34736609 9.08312395
O 9.45625497 8.97454752 6.74819635
H 9.55465595 9.57395389 7.52441455
H 9.24775036 9.60256125 6.05645378
O 4.46975185 10.66465876 12.68414412
H 4.94879351 10.75383865 11.82510871
H 4.58163869 9.71124501 12.90844367
O 13.52876485 19.46574897 17.04801649
H 13.32151445 18.89525169 17.77325382
H 12.77727492 19.46147242 16.42446354
O 0.54817655 14.47571116 3.96203463
H 1.40821471 14.01478444 3.82417863
H 0.15890488 14.47293498 3.09872685
O 4.19634822 0.62996239 8.06040879
H 3.75805524 1.26509781 7.55907270
H 4.64327847 1.08180290 8.81957118
O 4.15398492 11.29308477 18.32697157
H 5.03545032 11.27667481 18.77324457
H 4.31412568 11.34378005 17.33672429
O 14.73308986 4.59044949 20.69685201
H 15.05738666 4.81041557 0.85690156
H 14.73401079 3.64486220 20.63858775
O 16.21945378 0.01979216 7.23294875
H 16.45882969 19.85157634 7.05118255
H 17.08073636 0.48717638 7.41948829
O 7.77669755 7.63113307 13.80497246
H 6.96700132 8.17040582 13.81037944
H 8.04196667 7.71385205 14.70873893
O 16.18268954 3.24108625 4.84279478
H 15.48434109 2.72810838 5.29354179
H 15.79917413 4.09350565 4.56753823
O 18.26738082 7.64363805 16.00094303
H 18.66460080 7.97255520 15.16939579
H 17.74538409 8.38621787 16.42969041
O 12.82771680 12.37948785 12.82957455
H 13.08670124 11.86620658 13.68416890
H 12.67392294 13.24003531 13.14473236
O 16.53379599 18.02077445 20.59725760
H 16.82560041 17.08704936 20.57983926
H 17.17948181 18.52333076 20.07700155
O 3.37232820 6.19604350 4.37157089
H 3.07707182 7.05286541 4.03907366
H 2.79508698 5.55765644 3.92499806
O 14.74122115 14.33798690 1.78013958
H 14.29276146 15.16691132 1.81872203
H 13.98315341 13.73480191 1.60200354
O 11.21655845 17.30510862 14.40722407
H 11.51937307 18.18903247 14.66459232
H 11.06574844 17.35824241 13.47261455
O 3.76023339 7.10969340 16.94321949
H 3.49293697 6.82528894 16.01401021
H 3.12936115 7.84841042 17.08321330
O 8.68664740 15.76557422 4.95190433
H 9.32010400 16.42314792 5.13504572
H 7.90737706 16.26685109 4.64423985
O 12.44614931 8.50619537 12.88420517
H 12.30115005 8.39754099 11.88952144
H 13.37209327 8.72549884 12.92544220
O 8.09621645 2.53430092 11.72134309
H 7.60478199 3.28069036 12.08618572
H 8.36715701 1.98198612 12.50701256
O 5.96496733 17.51320499 11.50328178
H 6.67241302 16.89785822 11.39505581
H 6.45261199 18.36068379 11.48599459
O 13.09061435 11.00767030 6.66690633
H 12.93336538 10.18740865 6.12930080
H 12.54126581 11.66423535 6.26925227
O 17.42652943 1.86257279 18.06265605
H 18.03413875 2.19298879 18.74306648
H 17.87696619 1.95767460 17.21138632
O 12.13135418 9.67179405 19.25408939
H 13.02824645 9.67980101 18.77054853
H 12.24914027 8.99685669 19.90558650
O 6.01586359 0.15681099 1.64621453
H 6.35106600 20.66341988 0.81361769
H 5.43069889 0.87756781 1.38452394
O 3.92967622 1.14059779 0.09732244
H 3.61475079 1.92046881 20.37672127
H 3.10926058 0.62113418 0.31011885
O 3.22042894 2.91103554 14.16187878
H 2.68509039 2.63002452 14.85255401
H 2.56984836 2.77294778 13.42228057
O 11.35924463 4.28837388 8.15253982
H 10.76565543 4.26133630 8.94385020
H 12.27096654 4.11340118 8.36861471
O 1.02471732 15.76514152 18.13966960
H 0.58766173 16.23502224 17.38769533
H 1.78565742 16.32635737 18.21410727
O 12.82130593 15.33790989 13.25401305
H 12.20878154 15.74745947 13.91644285
H 13.57354048 15.91143990 13.34927246
O 2.05086611 4.94443392 0.61589740
H 2.73623398 5.02170136 1.26596775
H 1.28931039 4.45461979 0.99097727
O 15.74392046 13.12643304 8.79482411
H 15.59051688 12.49335989 8.03410481
H 16.72502805 13.00411176 8.88926165
O 9.72757250 15.21847054 17.74183211
H 10.04439253 14.54392840 17.08977038
H 9.54597320 15.93997110 17.14392945
O 8.49405151 10.57813290 4.67734972
H 8.91325650 11.44323023 4.42293536
H 8.47873086 10.15863091 3.81231570
O 2.53638608 0.08233337 16.59848694
H 3.47465412 0.20989060 16.63819922
H 2.43263689 20.35428057 15.71747237
O 3.10328526 3.31922924 19.46095790
H 3.93166066 3.77227818 19.39820130
H 2.62167260 3.88166840 20.15148549
O 0.92614273 12.84142948 14.19044731
H 0.17763397 13.30052655 13.87957447
H 1.71907215 13.37862215 13.87589029
O 12.66984015 5.13529567 3.62431510
H 12.34248195 5.02994570 4.52068293
H 12.11970732 5.74732885 3.22110376
O 11.56522504 6.42666555 18.53972126
H 12.15847271 7.00921238 18.07561865
H 11.67987598 5.54863490 18.10595297
O 16.19674041 2.46699621 11.65996247
H 15.32650948 2.44791828 12.13986686
H 16.85827662 2.10256490 12.28058900
O 18.51455892 1.03335853 11.81908192
H 19.20519283 0.53271625 12.34981957
H 18.90985566 1.88521641 11.61823144
O 2.29490625 2.26230077 11.61816990
H 2.96889211 2.69872520 11.10285224
H 2.43610726 1.28003048 11.58236977
O 14.83367309 1.74870143 16.57833964
H 14.26590886 0.98636694 16.77838690
H 15.31798643 1.87842651 17.40047099
O 7.70929697 19.85261480 11.32646214
H 7.17347230 20.57176345 10.90139755
H 8.54283146 19.74767468 10.74785202
O 17.22295271 19.92387849 10.18186309
H 17.69397640 20.66860994 10.63994520
H 17.83410598 19.38459985 9.75942842
O 14.58933749 11.60703982 10.84998838
H 14.92110033 12.34399541 10.27806716
H 14.10412631 12.00423371 11.61003798
O 16.43920778 0.59637449 14.67831768
H 16.53780931 20.58350568 15.29717305
H 15.90255996 1.26361958 15.29114122
O 10.18626344 12.67296626 16.28310068
H 10.23960770 11.67192630 16.40380863
H 9.85911800 12.82686454 15.33310172
O 11.07277886 19.72530845 15.73408906
H 11.19844006 20.59678224 16.22149574
H 10.26060025 19.36554476 16.16455162
O 1.90141521 20.72431835 6.76615229
H 2.67699126 20.31634655 7.20110562
H 1.49288038 0.52788435 7.45905192
O 4.55240761 0.34961371 12.97747843
H 4.18240221 1.21630514 13.21595436
H 5.41554619 0.36922521 13.34510190
O 20.24231054 12.29937156 5.56356110
H 19.80759781 11.87538228 4.80884359
H 20.64272026 13.16494292 5.26183351
O 5.44191120 8.81820657 15.45845711
H 4.77226591 9.38165853 15.17626264
H 5.01909966 8.04505585 15.82944346
O 20.11819268 16.82983582 16.14581800
H 20.07888413 16.58336026 15.23274908
H 19.94758030 17.72778861 16.22528972
O 13.33918415 10.79695420 15.01435713
H 12.54471117 10.47039977 15.43127768
H 13.96935707 10.11141967 14.90323121
O 2.64510498 10.27263210 20.32815136
H 1.87717648 9.91663540 19.87604908
H 3.13662206 10.61970215 19.54042351
O 1.34008033 19.71832138 18.70166649
H 1.61895850 20.37068990 17.92324632
H 0.60102996 19.20784366 18.40775291
O 10.88489644 0.05861711 13.25742815
H 11.40080961 20.34101512 13.87573259
H 10.98266009 20.46772368 12.37633447
O 10.34438283 10.33165384 13.39153374
H 11.10771337 10.79296684 13.16984327
H 10.73612302 9.51244771 13.74337861
O 9.76766615 18.43448053 5.83630679
H 9.62256167 18.18107095 6.76711897
H 8.90791366 18.54399469 5.42747633
O 15.68445183 14.93603069 11.47587291
H 15.69083540 15.50037817 12.26103416
H 16.12591479 15.49825797 10.83668014
O 6.60292257 16.46935637 18.94563890
H 7.44971937 16.66412872 19.39533852
H 5.95609064 16.73861956 19.60836033
O 2.37425063 8.63523733 3.44982501
H 3.24276716 9.05327487 3.33720484
H 2.02839023 8.19380886 2.66428146
O 19.72061775 15.60136965 10.48194157
H 20.70075660 15.32104600 10.68584916
H 19.63870751 15.29871097 9.53706826
O 19.02865136 3.55931360 4.70495193
H 18.18074508 3.06903194 4.72917525
H 18.78295833 4.37598824 4.25072442
O 5.96475723 1.00953437 10.02835985
H 6.54702373 1.36598729 9.35693028
H 5.80855382 1.61367096 10.72590777
O 7.73571444 10.85390826 15.28445232
H 7.67144190 9.90269685 15.14912433
H 8.56300001 11.12951891 14.83088633
O 14.22043459 0.25007971 1.86788600
H 14.24318372 20.19037986 1.44556427
H 15.07246632 0.32820730 2.31848650
O 8.87009880 16.76699499 15.49219997
H 8.78672208 17.57206460 16.03581000
H 9.71275062 16.90960584 15.02043746
O 11.97217116 18.75226686 19.59481607
H 11.64936099 17.84535300 19.80496179
H 11.36857092 19.32951769 19.99889351
O 3.53144922 13.02384319 6.25485660
H 2.88350722 12.78876333 6.92542341
H 4.32658993 12.58251562 6.37849245
O 10.23669275 4.23742376 16.20331025
H 11.02669031 3.79091682 16.62300758
H 10.62281215 5.00638618 15.80405739
O 16.62068979 8.85632694 0.01733261
H 16.27962040 9.36003501 0.82356731
H 17.32108389 8.32710076 0.39290529
O 6.09612627 18.16221505 8.55152158
H 5.53806663 17.55467012 8.08254260
H 5.77726920 18.22360067 9.45813700
O 8.57626942 18.80113521 17.24566377
H 8.35487393 19.69926429 17.20689225
H 8.70890944 18.62872261 18.21348638
O 12.59411173 18.05692766 9.49635900
H 12.67938920 17.08426314 9.41647408
H 12.44612445 18.35989292 8.58427535
O 14.43603071 19.68323915 11.37796399
H 14.76431429 20.41728092 10.77811335
H 13.80075274 19.27285060 10.77946027
O 12.99424585 13.28342972 16.62209513
H 12.00986597 13.11258696 16.55706423
H 13.37071825 12.52191115 16.09428506
O 2.67719517 20.31373981 4.34240928
H 3.01701428 0.05743944 3.62099725
H 2.66900860 0.14814761 5.10533888
O 19.57108865 11.41623952 15.75473832
H 20.14072682 11.56665741 16.54091435
H 19.90059256 10.60205120 15.27590959
O 11.01476811 0.83459577 17.44170643
H 10.06018824 0.82182761 17.54055549
H 11.32341169 0.24119356 18.08364348
O 12.68965651 0.54924415 4.30251666
H 12.53332988 0.42590863 3.34202260
H 13.61755688 0.67880675 4.40746974
O 14.94679496 1.26620558 9.57055895
H 15.59272508 1.51810397 10.28183531
H 15.39460740 0.54841979 9.08486062
O 1.72262789 14.95898241 10.59080140
H 2.30420545 14.92300110 11.40003213
H 2.03522965 15.76644114 10.09786776
O 9.95332372 0.34561830 20.39991528
H 10.43530993 1.13187326 20.16883346
H 10.22713537 0.18918410 0.57490372
O 17.29525832 13.88102267 4.99075128
H 17.95746980 14.55375268 5.24376675
H 17.64621675 13.36059403 4.24193739
O 17.14576353 12.40982620 2.52165774
H 18.00598839 12.39911914 2.08027554
H 16.80865673 13.24520234 2.18292938
O 17.14675864 10.17330089 17.44032897
H 17.68389999 10.78716684 16.89842032
H 17.72330356 10.08041498 18.21635963
O 6.64628538 4.79198993 12.64936110
H 6.83200916 5.24623971 11.76098234
H 7.25569461 5.21877194 13.30455783
O 3.06300685 19.11702308 14.50337565
H 3.60300770 18.44647126 15.00886498
H 3.73117892 19.69740097 14.13040914
O 19.78942333 19.32759309 17.01709360
H 19.12714266 19.59461407 17.60945383
H 20.04958233 20.15716242 16.50156881
O 14.09536898 3.68452024 8.86419731
H 14.25223492 2.71821376 8.96072280
H 14.20650684 4.10372492 9.73102099
O 14.06046919 17.53526869 5.07694391
H 13.36210426 17.90690362 5.57059740
H 14.27298050 16.62638000 5.30614291
O 10.89333065 18.44093866 3.46976366
H 10.98631907 18.22083816 4.40979015
H 11.51849041 17.77849765 3.06643973
O 18.67246474 7.39804225 1.72599586
H 18.48377025 7.18213798 2.64918323
H 19.62404990 7.40483886 1.73357287
O 7.81842274 0.66867602 3.51828142
H 7.91163367 1.45147532 4.06597885
H 6.99027930 0.72752053 3.05799237
O 3.17143525 17.76660589 11.61503333
H 4.09968213 17.71707803 11.77978770
H 2.69299420 17.92268322 12.46715116
O 14.31046254 7.97688215 0.77744082
H 15.11891533 8.08549181 0.34602605
H 14.55656807 7.30559021 1.43079272
O 17.29511861 13.10399193 15.65487244
H 16.81182481 13.00701035 14.80171434
H 18.13927238 12.73554644 15.40334583
O 16.92322957 18.65446519 12.64261984
H 16.89230212 18.73727927 11.71019532
H 16.56565831 19.45245074 12.95466010
O 2.99455405 14.61683240 13.23728395
H 3.89978226 14.30911115 13.34122504
H 3.04552910 15.46284317 13.70556508
O 4.90668328 9.24083225 0.78222337
H 4.03773263 9.50822326 0.48014878
H 4.98579411 9.48855675 1.74560110
O 8.62425164 9.23061933 11.61860083
H 8.33304314 8.61066856 12.30485936
H 9.17575230 9.89467416 12.03041594
O 19.45251808 17.50453200 13.29319124
H 18.52158012 17.93462415 13.09631320
H 19.75029616 17.04999984 12.51745268
O 0.22851734 7.17493317 6.38055373
H 0.75290684 6.68740094 7.07791615
H 0.68137607 8.01880724 6.40975362
O 8.25047609 6.16939170 0.29169811
H 9.09180077 5.89632691 0.41276336
H 7.77086410 6.37429962 1.13554619
O 1.42868549 11.16577626 1.90173524
H 1.96535911 10.97336699 1.12242757
H 1.12856747 10.35662641 2.19423621
O 8.68301315 17.53003803 2.03976097
H 9.29570537 18.06481708 2.55313641
H 7.80916959 17.49181775 2.51605706
O 18.18442778 7.32896881 8.01757962
H 18.46325402 6.40316572 7.83375279
H 19.00831592 7.82355737 8.14868521
O 8.74946327 7.91035862 16.40270313
H 8.95092314 7.07563325 16.73220182
H 8.14290290 8.30837651 17.07823327
O 6.33950505 8.80419163 7.53250313
H 7.19128151 8.37625585 7.42252363
H 5.64843228 8.14473864 7.45331602
O 12.00961421 8.43511571 5.79329596
H 11.64843868 8.63176678 4.86488957
H 11.17609464 8.43176817 6.26165778
O 12.38312464 2.80363685 1.75647849
H 12.61251506 3.39226549 2.54244524
H 13.02826132 2.09825853 1.74118912
O 13.07573598 2.41356971 12.39085380
H 12.62887879 3.12853033 12.79786467
H 13.07058293 1.62545709 12.95402140
O 14.45868590 1.75088496 6.13600326
H 14.88944340 1.13460675 6.67649792
H 13.54074826 1.81466520 6.48241212
O 18.80009609 6.58165652 4.64342377
H 19.61638861 6.88850185 5.11355416
H 18.03914421 6.85822621 5.12632225
O 4.53036985 17.00637372 20.70663668
H 3.95173391 17.09658736 19.92338393
H 4.41434339 17.72186274 0.58672068
O 13.49460819 7.19276903 16.96402659
H 13.96283420 7.89746303 17.44569047
H 13.95346072 6.44004459 17.37318938
O 9.42611574 5.44052504 3.40431731
H 9.10210482 6.33379523 3.74063972
H 10.02045764 5.17178148 4.14866492
O 19.70530862 18.48298195 8.95021555
H 19.61297058 17.62999163 9.39541832
H 19.84625045 18.32244779 7.98075460
O 6.81814642 6.33256218 10.35215226
H 7.73534498 6.53886530 10.05785382
H 6.45839233 5.91392849 9.60034182
O 20.06404042 2.84581666 19.29235371
H 20.22880788 2.62232880 20.22088206
H 0.17843705 2.75819055 18.86772020
O 18.62200765 1.70882411 7.70071284
H 19.27753179 1.52843582 8.37064133
H 18.43035972 2.68444438 7.73555349
O 3.22175961 17.58749685 18.54756510
H 2.53298015 18.26066423 18.45188095
H 3.78183661 17.63305132 17.79317038
O 16.08905469 6.37229698 14.83226454
H 16.70764454 6.76574731 15.45677091
H 16.46983804 5.54307362 14.49367234
O 5.99601077 3.65444795 20.50510655
H 6.03134877 2.94664486 19.94207319
H 6.32174956 4.34221855 19.97000771
O 6.70197719 8.78706279 17.88069500
H 6.00454744 9.06218231 17.28670009
H 6.73299172 9.38080569 18.62788493
O 13.18205274 16.85962267 2.57717174
H 13.58692298 17.63461912 2.10236548
H 13.62220649 16.84437377 3.46754822
O 13.73906090 0.00081484 13.75639556
H 13.97203149 20.30327828 12.95284424
H 14.55219188 20.74791886 14.29368496
O 15.86611462 13.83016539 18.48893209
H 16.39250647 13.43054328 17.82026775
H 15.45948246 14.56941638 18.00049735
O 8.75178871 2.79436432 19.17878718
H 8.66871256 3.36799055 19.96348487
H 8.19173234 3.25764379 18.51024771
O 4.67718498 13.39086707 9.42822522
H 5.45399019 12.92077544 9.14127673
H 4.86789240 13.75530621 10.29440899
O 19.94246933 14.21317383 8.13020569
H 19.36342976 13.45388043 8.28722823
H 19.53232297 14.77111441 7.43126036
O 1.90707064 14.10436840 0.96140832
H 2.63936769 13.62191843 1.31559921
H 2.03895573 14.96347915 1.29651588
O 4.80148817 7.23412586 12.25127262
H 5.45000366 7.06755182 11.55461869
H 4.96331752 6.62182600 12.96357290
O 11.83474067 15.98239534 19.49324698
H 11.05448771 15.93665234 18.93031173
H 11.63542602 15.42850604 20.29831080
O 12.49261502 10.63754481 9.46568150